ITEM: TIMESTEP 
0 
ITEM: NUMBER OF ATOMS 
256
ITEM: BOX BOUNDS pp pp pp 
0 21.024
0 21.024
0 21.024
ITEM: ATOMS id type x y z 
1 0 0 0 0 
2 0 0 2.628 2.628 
3 0 2.628 0 2.628 
4 0 2.628 2.628 0 
5 0 0 0 5.256 
6 0 0 2.628 7.884 
7 0 2.628 0 7.884 
8 0 2.628 2.628 5.256 
9 0 0 0 10.512 
10 0 0 2.628 13.14 
11 0 2.628 0 13.14 
12 0 2.628 2.628 10.512 
13 0 0 0 15.768 
14 0 0 2.628 18.396 
15 0 2.628 0 18.396 
16 0 2.628 2.628 15.768 
17 0 0 5.256 0 
18 0 0 7.884 2.628 
19 0 2.628 5.256 2.628 
20 0 2.628 7.884 0 
21 0 0 5.256 5.256 
22 0 0 7.884 7.884 
23 0 2.628 5.256 7.884 
24 0 2.628 7.884 5.256 
25 0 0 5.256 10.512 
26 0 0 7.884 13.14 
27 0 2.628 5.256 13.14 
28 0 2.628 7.884 10.512 
29 0 0 5.256 15.768 
30 0 0 7.884 18.396 
31 0 2.628 5.256 18.396 
32 0 2.628 7.884 15.768 
33 0 0 10.512 0 
34 0 0 13.14 2.628 
35 0 2.628 10.512 2.628 
36 0 2.628 13.14 0 
37 0 0 10.512 5.256 
38 0 0 13.14 7.884 
39 0 2.628 10.512 7.884 
40 0 2.628 13.14 5.256 
41 0 0 10.512 10.512 
42 0 0 13.14 13.14 
43 0 2.628 10.512 13.14 
44 0 2.628 13.14 10.512 
45 0 0 10.512 15.768 
46 0 0 13.14 18.396 
47 0 2.628 10.512 18.396 
48 0 2.628 13.14 15.768 
49 0 0 15.768 0 
50 0 0 18.396 2.628 
51 0 2.628 15.768 2.628 
52 0 2.628 18.396 0 
53 0 0 15.768 5.256 
54 0 0 18.396 7.884 
55 0 2.628 15.768 7.884 
56 0 2.628 18.396 5.256 
57 0 0 15.768 10.512 
58 0 0 18.396 13.14 
59 0 2.628 15.768 13.14 
60 0 2.628 18.396 10.512 
61 0 0 15.768 15.768 
62 0 0 18.396 18.396 
63 0 2.628 15.768 18.396 
64 0 2.628 18.396 15.768 
65 0 5.256 0 0 
66 0 5.256 2.628 2.628 
67 0 7.884 0 2.628 
68 0 7.884 2.628 0 
69 0 5.256 0 5.256 
70 0 5.256 2.628 7.884 
71 0 7.884 0 7.884 
72 0 7.884 2.628 5.256 
73 0 5.256 0 10.512 
74 0 5.256 2.628 13.14 
75 0 7.884 0 13.14 
76 0 7.884 2.628 10.512 
77 0 5.256 0 15.768 
78 0 5.256 2.628 18.396 
79 0 7.884 0 18.396 
80 0 7.884 2.628 15.768 
81 0 5.256 5.256 0 
82 0 5.256 7.884 2.628 
83 0 7.884 5.256 2.628 
84 0 7.884 7.884 0 
85 0 5.256 5.256 5.256 
86 0 5.256 7.884 7.884 
87 0 7.884 5.256 7.884 
88 0 7.884 7.884 5.256 
89 0 5.256 5.256 10.512 
90 0 5.256 7.884 13.14 
91 0 7.884 5.256 13.14 
92 0 7.884 7.884 10.512 
93 0 5.256 5.256 15.768 
94 0 5.256 7.884 18.396 
95 0 7.884 5.256 18.396 
96 0 7.884 7.884 15.768 
97 0 5.256 10.512 0 
98 0 5.256 13.14 2.628 
99 0 7.884 10.512 2.628 
100 0 7.884 13.14 0 
101 0 5.256 10.512 5.256 
102 0 5.256 13.14 7.884 
103 0 7.884 10.512 7.884 
104 0 7.884 13.14 5.256 
105 0 5.256 10.512 10.512 
106 0 5.256 13.14 13.14 
107 0 7.884 10.512 13.14 
108 0 7.884 13.14 10.512 
109 0 5.256 10.512 15.768 
110 0 5.256 13.14 18.396 
111 0 7.884 10.512 18.396 
112 0 7.884 13.14 15.768 
113 0 5.256 15.768 0 
114 0 5.256 18.396 2.628 
115 0 7.884 15.768 2.628 
116 0 7.884 18.396 0 
117 0 5.256 15.768 5.256 
118 0 5.256 18.396 7.884 
119 0 7.884 15.768 7.884 
120 0 7.884 18.396 5.256 
121 0 5.256 15.768 10.512 
122 0 5.256 18.396 13.14 
123 0 7.884 15.768 13.14 
124 0 7.884 18.396 10.512 
125 0 5.256 15.768 15.768 
126 0 5.256 18.396 18.396 
127 0 7.884 15.768 18.396 
128 0 7.884 18.396 15.768 
129 0 10.512 0 0 
130 0 10.512 2.628 2.628 
131 0 13.14 0 2.628 
132 0 13.14 2.628 0 
133 0 10.512 0 5.256 
134 0 10.512 2.628 7.884 
135 0 13.14 0 7.884 
136 0 13.14 2.628 5.256 
137 0 10.512 0 10.512 
138 0 10.512 2.628 13.14 
139 0 13.14 0 13.14 
140 0 13.14 2.628 10.512 
141 0 10.512 0 15.768 
142 0 10.512 2.628 18.396 
143 0 13.14 0 18.396 
144 0 13.14 2.628 15.768 
145 0 10.512 5.256 0 
146 0 10.512 7.884 2.628 
147 0 13.14 5.256 2.628 
148 0 13.14 7.884 0 
149 0 10.512 5.256 5.256 
150 0 10.512 7.884 7.884 
151 0 13.14 5.256 7.884 
152 0 13.14 7.884 5.256 
153 0 10.512 5.256 10.512 
154 0 10.512 7.884 13.14 
155 0 13.14 5.256 13.14 
156 0 13.14 7.884 10.512 
157 0 10.512 5.256 15.768 
158 0 10.512 7.884 18.396 
159 0 13.14 5.256 18.396 
160 0 13.14 7.884 15.768 
161 0 10.512 10.512 0 
162 0 10.512 13.14 2.628 
163 0 13.14 10.512 2.628 
164 0 13.14 13.14 0 
165 0 10.512 10.512 5.256 
166 0 10.512 13.14 7.884 
167 0 13.14 10.512 7.884 
168 0 13.14 13.14 5.256 
169 0 10.512 10.512 10.512 
170 0 10.512 13.14 13.14 
171 0 13.14 10.512 13.14 
172 0 13.14 13.14 10.512 
173 0 10.512 10.512 15.768 
174 0 10.512 13.14 18.396 
175 0 13.14 10.512 18.396 
176 0 13.14 13.14 15.768 
177 0 10.512 15.768 0 
178 0 10.512 18.396 2.628 
179 0 13.14 15.768 2.628 
180 0 13.14 18.396 0 
181 0 10.512 15.768 5.256 
182 0 10.512 18.396 7.884 
183 0 13.14 15.768 7.884 
184 0 13.14 18.396 5.256 
185 0 10.512 15.768 10.512 
186 0 10.512 18.396 13.14 
187 0 13.14 15.768 13.14 
188 0 13.14 18.396 10.512 
189 0 10.512 15.768 15.768 
190 0 10.512 18.396 18.396 
191 0 13.14 15.768 18.396 
192 0 13.14 18.396 15.768 
193 0 15.768 0 0 
194 0 15.768 2.628 2.628 
195 0 18.396 0 2.628 
196 0 18.396 2.628 0 
197 0 15.768 0 5.256 
198 0 15.768 2.628 7.884 
199 0 18.396 0 7.884 
200 0 18.396 2.628 5.256 
201 0 15.768 0 10.512 
202 0 15.768 2.628 13.14 
203 0 18.396 0 13.14 
204 0 18.396 2.628 10.512 
205 0 15.768 0 15.768 
206 0 15.768 2.628 18.396 
207 0 18.396 0 18.396 
208 0 18.396 2.628 15.768 
209 0 15.768 5.256 0 
210 0 15.768 7.884 2.628 
211 0 18.396 5.256 2.628 
212 0 18.396 7.884 0 
213 0 15.768 5.256 5.256 
214 0 15.768 7.884 7.884 
215 0 18.396 5.256 7.884 
216 0 18.396 7.884 5.256 
217 0 15.768 5.256 10.512 
218 0 15.768 7.884 13.14 
219 0 18.396 5.256 13.14 
220 0 18.396 7.884 10.512 
221 0 15.768 5.256 15.768 
222 0 15.768 7.884 18.396 
223 0 18.396 5.256 18.396 
224 0 18.396 7.884 15.768 
225 0 15.768 10.512 0 
226 0 15.768 13.14 2.628 
227 0 18.396 10.512 2.628 
228 0 18.396 13.14 0 
229 0 15.768 10.512 5.256 
230 0 15.768 13.14 7.884 
231 0 18.396 10.512 7.884 
232 0 18.396 13.14 5.256 
233 0 15.768 10.512 10.512 
234 0 15.768 13.14 13.14 
235 0 18.396 10.512 13.14 
236 0 18.396 13.14 10.512 
237 0 15.768 10.512 15.768 
238 0 15.768 13.14 18.396 
239 0 18.396 10.512 18.396 
240 0 18.396 13.14 15.768 
241 0 15.768 15.768 0 
242 0 15.768 18.396 2.628 
243 0 18.396 15.768 2.628 
244 0 18.396 18.396 0 
245 0 15.768 15.768 5.256 
246 0 15.768 18.396 7.884 
247 0 18.396 15.768 7.884 
248 0 18.396 18.396 5.256 
249 0 15.768 15.768 10.512 
250 0 15.768 18.396 13.14 
251 0 18.396 15.768 13.14 
252 0 18.396 18.396 10.512 
253 0 15.768 15.768 15.768 
254 0 15.768 18.396 18.396 
255 0 18.396 15.768 18.396 
256 0 18.396 18.396 15.768 
